version 2
run Poisson-0-20131129-17:19:58-16760
attr configname Poisson
attr datetime 20131129-17:19:58
attr experiment Poisson
attr inifile omnetpp.ini
attr iterationvars ""
attr iterationvars2 $repetition=0
attr measurement ""
attr network Poisson
attr processid 16760
attr repetition 0
attr replication #0
attr resultdir results
attr runnumber 0
attr seedset 0

vector 0  Poisson.receiver  arrivals  ETV
attr interpolationmode  none
0	2	0	1
0	4	15	1
0	6	28	1
0	8	35	1
0	10	53	1
0	12	62	1
0	14	68	1
0	16	80	1
0	18	91	1
0	20	100	1
0	22	111	1
0	24	120	1
0	26	127	1
0	28	137	1
0	30	144	1
0	32	154	1
0	34	165	1
0	36	173	1
0	38	180	1
0	40	186	1
0	42	202	1
0	44	218	1
0	46	231	1
0	48	243	1
0	50	250	1
0	52	260	1
0	54	272	1
0	56	281	1
0	58	290	1
0	60	299	1
0	62	303	1
0	64	313	1
0	66	318	1
0	68	329	1
0	70	344	1
0	72	351	1
0	74	361	1
0	76	372	1
0	78	386	1
0	80	394	1
0	82	402	1
0	84	417	1
0	86	427	1
0	88	436	1
0	90	447	1
0	92	455	1
0	94	465	1
0	96	474	1
0	98	478	1
0	100	488	1
0	102	507	1
0	104	518	1
0	106	527	1
0	108	535	1
0	110	548	1
0	112	558	1
0	114	563	1
0	116	570	1
0	118	583	1
0	120	590	1
0	122	604	1
0	124	614	1
0	126	619	1
0	128	628	1
0	130	639	1
0	132	650	1
0	134	658	1
0	136	669	1
0	138	681	1
0	140	688	1
0	142	704	1
0	144	713	1
0	146	722	1
0	148	729	1
0	150	738	1
0	152	744	1
0	154	750	1
0	156	756	1
0	158	762	1
0	160	774	1
0	162	781	1
0	164	797	1
0	166	808	1
0	168	822	1
0	170	831	1
0	172	841	1
0	174	853	1
0	176	865	1
0	178	875	1
0	180	883	1
0	182	892	1
0	184	905	1
0	186	914	1
0	188	925	1
0	190	939	1
0	192	950	1
0	194	956	1
0	196	964	1
0	198	971	1
0	200	982	1
0	202	996	1
0	204	1006	1
0	206	1020	1
0	208	1035	1
0	210	1040	1
0	212	1051	1
0	214	1061	1
0	216	1069	1
0	218	1080	1
0	220	1086	1
0	222	1094	1
0	224	1104	1
0	226	1117	1
0	228	1129	1
0	230	1144	1
0	232	1148	1
0	234	1158	1
0	236	1173	1
0	238	1181	1
0	240	1188	1
0	242	1198	1
0	244	1206	1
0	246	1213	1
0	248	1223	1
0	250	1235	1
0	252	1244	1
0	254	1253	1
0	256	1257	1
0	258	1267	1
0	260	1278	1
0	262	1282	1
0	264	1287	1
0	266	1298	1
0	268	1307	1
0	270	1314	1
0	272	1330	1
0	274	1338	1
0	276	1344	1
0	278	1352	1
0	280	1368	1
0	282	1375	1
0	284	1386	1
0	286	1402	1
0	288	1413	1
0	290	1425	1
0	292	1431	1
0	294	1441	1
0	296	1450	1
0	298	1454	1
0	300	1473	1
0	302	1480	1
0	304	1491	1
0	306	1493	1
0	308	1499	1
0	310	1509	1
0	312	1519	1
0	314	1526	1
0	316	1540	1
0	318	1549	1
0	320	1559	1
0	322	1572	1
0	324	1582	1
0	326	1594	1
0	328	1605	1
0	330	1619	1
0	332	1630	1
0	334	1641	1
0	336	1652	1
0	338	1659	1
0	340	1675	1
0	342	1685	1
0	344	1696	1
0	346	1708	1
0	348	1716	1
0	350	1731	1
0	352	1745	1
0	354	1754	1
0	356	1764	1
0	358	1776	1
0	360	1785	1
0	362	1801	1
0	364	1807	1
0	366	1812	1
0	368	1822	1
0	370	1831	1
0	372	1839	1
0	374	1845	1
0	376	1855	1
0	378	1870	1
0	380	1875	1
0	382	1887	1
0	384	1895	1
0	386	1902	1
0	388	1909	1
0	390	1917	1
0	392	1927	1
0	394	1931	1
0	396	1939	1
0	398	1943	1
0	400	1951	1
0	402	1962	1
0	404	1975	1
0	406	1984	1
0	408	1990	1
0	410	2002	1
0	412	2018	1
0	414	2026	1
0	416	2039	1
0	418	2049	1
0	420	2055	1
0	422	2067	1
0	424	2077	1
0	426	2083	1
0	428	2091	1
0	430	2104	1
0	432	2113	1
0	434	2116	1
0	436	2129	1
0	438	2148	1
0	440	2166	1
0	442	2168	1
0	444	2177	1
0	446	2191	1
0	448	2199	1
0	450	2204	1
0	452	2213	1
0	454	2221	1
0	456	2232	1
0	458	2237	1
0	460	2242	1
0	462	2249	1
0	464	2259	1
0	466	2270	1
0	468	2282	1
0	470	2299	1
0	472	2311	1
0	474	2323	1
0	476	2330	1
0	478	2339	1
0	480	2350	1
0	482	2360	1
0	484	2374	1
0	486	2384	1
0	488	2399	1
0	490	2401	1
0	492	2412	1
0	494	2422	1
0	496	2433	1
0	498	2438	1
0	500	2449	1
0	502	2458	1
0	504	2465	1
0	506	2482	1
0	508	2496	1
0	510	2503	1
0	512	2508	1
0	514	2521	1
0	516	2531	1
0	518	2547	1
0	520	2556	1
0	522	2566	1
0	524	2574	1
0	526	2580	1
0	528	2585	1
0	530	2598	1
0	532	2611	1
0	534	2623	1
0	536	2633	1
0	538	2642	1
0	540	2655	1
0	542	2671	1
0	544	2679	1
0	546	2687	1
0	548	2692	1
0	550	2709	1
0	552	2719	1
0	554	2726	1
0	556	2735	1
0	558	2750	1
0	560	2765	1
0	562	2780	1
0	564	2793	1
0	566	2805	1
0	568	2814	1
0	570	2828	1
0	572	2839	1
0	574	2845	1
0	576	2856	1
0	578	2862	1
0	580	2871	1
0	582	2884	1
0	584	2893	1
0	586	2902	1
0	588	2909	1
0	590	2921	1
0	592	2932	1
0	594	2940	1
0	596	2946	1
0	598	2962	1
0	600	2968	1
0	602	2976	1
0	604	2984	1
0	606	2997	1
0	608	3005	1
0	610	3023	1
0	612	3032	1
0	614	3050	1
0	616	3057	1
0	618	3060	1
0	620	3069	1
0	622	3078	1
0	624	3085	1
0	626	3096	1
0	628	3103	1
0	630	3111	1
0	632	3121	1
0	634	3132	1
0	636	3140	1
0	638	3149	1
0	640	3156	1
0	642	3164	1
0	644	3172	1
0	646	3178	1
0	648	3185	1
0	650	3197	1
0	652	3204	1
0	654	3222	1
0	656	3230	1
0	658	3246	1
0	660	3256	1
0	662	3270	1
0	664	3279	1
0	666	3289	1
0	668	3307	1
0	670	3316	1
0	672	3326	1
0	674	3338	1
0	676	3349	1
0	678	3359	1
0	680	3371	1
0	682	3382	1
0	684	3388	1
0	686	3402	1
0	688	3410	1
0	690	3422	1
0	692	3428	1
0	694	3437	1
0	696	3442	1
0	698	3454	1
0	700	3465	1
0	702	3475	1
0	704	3487	1
0	706	3494	1
0	708	3503	1
0	710	3511	1
0	712	3518	1
0	714	3530	1
0	716	3536	1
0	718	3545	1
0	720	3555	1
0	722	3567	1
0	724	3582	1
0	726	3587	1
0	728	3597	1
0	730	3611	1
0	732	3620	1
0	734	3630	1
0	736	3643	1
0	738	3650	1
0	740	3658	1
0	742	3667	1
0	744	3674	1
0	746	3682	1
0	748	3692	1
0	750	3704	1
0	752	3714	1
0	754	3726	1
0	756	3734	1
0	758	3744	1
0	760	3753	1
0	762	3761	1
0	764	3769	1
0	766	3774	1
0	768	3787	1
0	770	3800	1
0	772	3810	1
0	774	3828	1
0	776	3836	1
0	778	3848	1
0	780	3856	1
0	782	3866	1
0	784	3880	1
0	786	3886	1
0	788	3897	1
0	790	3906	1
0	792	3915	1
0	794	3924	1
0	796	3939	1
0	798	3951	1
0	800	3964	1
0	802	3972	1
0	804	3987	1
0	806	3997	1
0	808	4012	1
0	810	4023	1
0	812	4031	1
0	814	4039	1
0	816	4047	1
0	818	4060	1
0	820	4070	1
0	822	4077	1
0	824	4096	1
0	826	4108	1
0	828	4120	1
0	830	4133	1
0	832	4151	1
0	834	4161	1
0	836	4171	1
0	838	4182	1
0	840	4193	1
0	842	4208	1
0	844	4221	1
0	846	4232	1
0	848	4243	1
0	850	4252	1
0	852	4265	1
0	854	4273	1
0	856	4281	1
0	858	4297	1
0	860	4311	1
0	862	4316	1
0	864	4325	1
0	866	4335	1
0	868	4345	1
0	870	4356	1
0	872	4369	1
0	874	4377	1
0	876	4383	1
0	878	4389	1
0	880	4394	1
0	882	4401	1
0	884	4412	1
0	886	4420	1
0	888	4432	1
0	890	4445	1
0	892	4458	1
0	894	4470	1
0	896	4479	1
0	898	4485	1
0	900	4499	1
0	902	4502	1
0	904	4507	1
0	906	4516	1
0	908	4529	1
0	910	4540	1
0	912	4552	1
0	914	4562	1
0	916	4575	1
0	918	4585	1
0	920	4599	1
0	922	4610	1
0	924	4624	1
0	926	4639	1
0	928	4655	1
0	930	4663	1
0	932	4666	1
0	934	4674	1
0	936	4684	1
0	938	4697	1
0	940	4710	1
0	942	4716	1
0	944	4725	1
0	946	4739	1
0	948	4753	1
0	950	4764	1
0	952	4767	1
0	954	4780	1
0	956	4793	1
0	958	4802	1
0	960	4814	1
0	962	4823	1
0	964	4829	1
0	966	4842	1
0	968	4852	1
0	970	4865	1
0	972	4882	1
0	974	4890	1
0	976	4899	1
0	978	4903	1
0	980	4910	1
0	982	4923	1
0	984	4936	1
0	986	4945	1
0	988	4959	1
0	990	4969	1
0	992	4980	1
0	994	4988	1
0	996	4997	1
0	998	5012	1
0	1000	5019	1
0	1002	5025	1
0	1004	5036	1
0	1006	5044	1
0	1008	5051	1
0	1010	5061	1
0	1012	5074	1
0	1014	5082	1
0	1016	5091	1
0	1018	5097	1
0	1020	5112	1
0	1022	5125	1
0	1024	5140	1
0	1026	5151	1
0	1028	5159	1
0	1030	5172	1
0	1032	5186	1
0	1034	5195	1
0	1036	5205	1
0	1038	5213	1
0	1040	5221	1
0	1042	5232	1
0	1044	5236	1
0	1046	5246	1
0	1048	5256	1
0	1050	5275	1
0	1052	5286	1
0	1054	5295	1
0	1056	5304	1
0	1058	5316	1
0	1060	5321	1
0	1062	5331	1
0	1064	5343	1
0	1066	5356	1
0	1068	5370	1
0	1070	5380	1
0	1072	5387	1
0	1074	5396	1
0	1076	5403	1
0	1078	5410	1
0	1080	5421	1
0	1082	5428	1
0	1084	5439	1
0	1086	5446	1
0	1088	5461	1
0	1090	5472	1
0	1092	5477	1
0	1094	5487	1
0	1096	5492	1
0	1098	5502	1
0	1100	5511	1
0	1102	5519	1
0	1104	5531	1
0	1106	5538	1
0	1108	5548	1
0	1110	5567	1
0	1112	5580	1
0	1114	5585	1
0	1116	5596	1
0	1118	5611	1
0	1120	5620	1
0	1122	5630	1
0	1124	5640	1
0	1126	5650	1
0	1128	5660	1
0	1130	5669	1
0	1132	5679	1
0	1134	5691	1
0	1136	5699	1
0	1138	5710	1
0	1140	5717	1
0	1142	5728	1
0	1144	5741	1
0	1146	5754	1
0	1148	5761	1
0	1150	5774	1
0	1152	5784	1
0	1154	5788	1
0	1156	5800	1
0	1158	5808	1
0	1160	5827	1
0	1162	5834	1
0	1164	5845	1
0	1166	5854	1
0	1168	5858	1
0	1170	5866	1
0	1172	5874	1
0	1174	5885	1
0	1176	5894	1
0	1178	5903	1
0	1180	5913	1
0	1182	5922	1
0	1184	5928	1
0	1186	5937	1
0	1188	5945	1
0	1190	5954	1
0	1192	5966	1
0	1194	5971	1
0	1196	5983	1
0	1198	5993	1
0	1200	6001	1
0	1202	6012	1
0	1204	6026	1
0	1206	6033	1
0	1208	6039	1
0	1210	6051	1
0	1212	6064	1
0	1214	6074	1
0	1216	6085	1
0	1218	6093	1
0	1220	6098	1
0	1222	6109	1
0	1224	6114	1
0	1226	6129	1
0	1228	6139	1
0	1230	6155	1
0	1232	6168	1
0	1234	6176	1
0	1236	6192	1
0	1238	6202	1
0	1240	6210	1
0	1242	6218	1
0	1244	6229	1
0	1246	6238	1
0	1248	6251	1
0	1250	6261	1
0	1252	6270	1
0	1254	6275	1
0	1256	6282	1
0	1258	6288	1
0	1260	6304	1
0	1262	6316	1
0	1264	6326	1
0	1266	6334	1
0	1268	6344	1
0	1270	6352	1
0	1272	6361	1
0	1274	6371	1
0	1276	6382	1
0	1278	6391	1
0	1280	6404	1
0	1282	6415	1
0	1284	6421	1
0	1286	6428	1
0	1288	6440	1
0	1290	6447	1
0	1292	6453	1
0	1294	6466	1
0	1296	6478	1
0	1298	6489	1
0	1300	6499	1
0	1302	6508	1
0	1304	6518	1
0	1306	6524	1
0	1308	6533	1
0	1310	6546	1
0	1312	6562	1
0	1314	6571	1
0	1316	6578	1
0	1318	6588	1
0	1320	6596	1
0	1322	6601	1
0	1324	6608	1
0	1326	6620	1
0	1328	6631	1
0	1330	6641	1
0	1332	6652	1
0	1334	6666	1
0	1336	6675	1
0	1338	6681	1
0	1340	6692	1
0	1342	6699	1
0	1344	6710	1
0	1346	6719	1
0	1348	6730	1
0	1350	6746	1
0	1352	6754	1
0	1354	6762	1
0	1356	6770	1
0	1358	6778	1
0	1360	6786	1
0	1362	6793	1
0	1364	6802	1
0	1366	6811	1
0	1368	6820	1
0	1370	6830	1
0	1372	6849	1
0	1374	6860	1
0	1376	6871	1
0	1378	6883	1
0	1380	6890	1
0	1382	6904	1
0	1384	6915	1
0	1386	6920	1
0	1388	6927	1
0	1390	6941	1
0	1392	6951	1
0	1394	6962	1
0	1396	6973	1
0	1398	6988	1
0	1400	6998	1
0	1402	7008	1
0	1404	7012	1
0	1406	7023	1
0	1408	7032	1
0	1410	7043	1
0	1412	7059	1
0	1414	7071	1
0	1416	7077	1
0	1418	7089	1
0	1420	7098	1
0	1422	7109	1
0	1424	7116	1
0	1426	7129	1
0	1428	7136	1
0	1430	7145	1
0	1432	7156	1
0	1434	7161	1
0	1436	7173	1
0	1438	7178	1
0	1440	7185	1
0	1442	7199	1
0	1444	7209	1
0	1446	7218	1
0	1448	7229	1
0	1450	7238	1
0	1452	7245	1
0	1454	7249	1
0	1456	7258	1
0	1458	7271	1
0	1460	7277	1
0	1462	7283	1
0	1464	7295	1
0	1466	7310	1
0	1468	7325	1
0	1470	7335	1
0	1472	7342	1
0	1474	7350	1
0	1476	7357	1
0	1478	7362	1
0	1480	7375	1
0	1482	7388	1
0	1484	7401	1
0	1486	7413	1
0	1488	7420	1
0	1490	7425	1
0	1492	7437	1
0	1494	7446	1
0	1496	7453	1
0	1498	7463	1
0	1500	7473	1
0	1502	7485	1
0	1504	7499	1
0	1506	7509	1
0	1508	7519	1
0	1510	7528	1
0	1512	7537	1
0	1514	7549	1
0	1516	7558	1
0	1518	7570	1
0	1520	7583	1
0	1522	7589	1
0	1524	7607	1
0	1526	7618	1
0	1528	7630	1
0	1530	7642	1
0	1532	7651	1
0	1534	7662	1
0	1536	7671	1
0	1538	7684	1
0	1540	7694	1
0	1542	7706	1
0	1544	7712	1
0	1546	7722	1
0	1548	7729	1
0	1550	7742	1
0	1552	7757	1
0	1554	7765	1
0	1556	7775	1
0	1558	7785	1
0	1560	7791	1
0	1562	7799	1
0	1564	7818	1
0	1566	7824	1
0	1568	7832	1
0	1570	7837	1
0	1572	7853	1
0	1574	7861	1
0	1576	7874	1
0	1578	7884	1
0	1580	7895	1
0	1582	7911	1
0	1584	7922	1
0	1586	7935	1
0	1588	7946	1
0	1590	7951	1
0	1592	7960	1
0	1594	7971	1
0	1596	7976	1
0	1598	7981	1
0	1600	7992	1
0	1602	7998	1
0	1604	8007	1
0	1606	8013	1
0	1608	8017	1
0	1610	8027	1
0	1612	8032	1
0	1614	8037	1
0	1616	8045	1
0	1618	8054	1
0	1620	8065	1
0	1622	8076	1
0	1624	8082	1
0	1626	8098	1
0	1628	8107	1
0	1630	8114	1
0	1632	8128	1
0	1634	8139	1
0	1636	8151	1
0	1638	8163	1
0	1640	8175	1
0	1642	8186	1
0	1644	8196	1
0	1646	8206	1
0	1648	8215	1
0	1650	8228	1
0	1652	8238	1
0	1654	8245	1
0	1656	8255	1
0	1658	8260	1
0	1660	8275	1
0	1662	8288	1
0	1664	8296	1
0	1666	8308	1
0	1668	8316	1
0	1670	8326	1
0	1672	8339	1
0	1674	8351	1
0	1676	8356	1
0	1678	8367	1
0	1680	8378	1
0	1682	8387	1
0	1684	8392	1
0	1686	8408	1
0	1688	8417	1
0	1690	8422	1
0	1692	8428	1
0	1694	8439	1
0	1696	8448	1
0	1698	8454	1
0	1700	8460	1
0	1702	8471	1
0	1704	8482	1
0	1706	8493	1
0	1708	8501	1
0	1710	8509	1
0	1712	8517	1
0	1714	8525	1
0	1716	8536	1
0	1718	8541	1
0	1720	8551	1
0	1722	8562	1
0	1724	8575	1
0	1726	8585	1
0	1728	8595	1
0	1730	8598	1
0	1732	8613	1
0	1734	8618	1
0	1736	8625	1
0	1738	8638	1
0	1740	8651	1
0	1742	8660	1
0	1744	8665	1
0	1746	8671	1
0	1748	8680	1
0	1750	8685	1
0	1752	8689	1
0	1754	8693	1
0	1756	8705	1
0	1758	8718	1
0	1760	8731	1
0	1762	8740	1
0	1764	8750	1
0	1766	8757	1
0	1768	8763	1
0	1770	8771	1
0	1772	8782	1
0	1774	8792	1
0	1776	8801	1
0	1778	8813	1
0	1780	8825	1
0	1782	8839	1
0	1784	8851	1
0	1786	8857	1
0	1788	8867	1
0	1790	8877	1
0	1792	8889	1
0	1794	8902	1
0	1796	8912	1
0	1798	8927	1
0	1800	8935	1
0	1802	8942	1
0	1804	8951	1
0	1806	8967	1
0	1808	8975	1
0	1810	8985	1
0	1812	8991	1
0	1814	8999	1
0	1816	9008	1
0	1818	9021	1
0	1820	9028	1
0	1822	9041	1
0	1824	9057	1
0	1826	9069	1
0	1828	9074	1
0	1830	9082	1
0	1832	9091	1
0	1834	9100	1
0	1836	9112	1
0	1838	9125	1
0	1840	9133	1
0	1842	9140	1
0	1844	9150	1
0	1846	9160	1
0	1848	9170	1
0	1850	9177	1
0	1852	9186	1
0	1854	9201	1
0	1856	9213	1
0	1858	9228	1
0	1860	9243	1
0	1862	9255	1
0	1864	9265	1
0	1866	9276	1
0	1868	9281	1
0	1870	9300	1
0	1872	9305	1
0	1874	9313	1
0	1876	9321	1
0	1878	9335	1
0	1880	9346	1
0	1882	9355	1
0	1884	9362	1
0	1886	9375	1
0	1888	9384	1
0	1890	9391	1
0	1892	9405	1
0	1894	9414	1
0	1896	9426	1
0	1898	9434	1
0	1900	9450	1
0	1902	9462	1
0	1904	9470	1
0	1906	9480	1
0	1908	9489	1
0	1910	9501	1
0	1912	9512	1
0	1914	9524	1
0	1916	9532	1
0	1918	9540	1
0	1920	9545	1
0	1922	9552	1
0	1924	9566	1
0	1926	9580	1
0	1928	9593	1
0	1930	9606	1
0	1932	9616	1
0	1934	9630	1
0	1936	9638	1
0	1938	9645	1
0	1940	9655	1
0	1942	9672	1
0	1944	9685	1
0	1946	9701	1
0	1948	9709	1
0	1950	9718	1
0	1952	9724	1
0	1954	9735	1
0	1956	9746	1
0	1958	9752	1
0	1960	9760	1
0	1962	9779	1
0	1964	9786	1
0	1966	9798	1
0	1968	9811	1
0	1970	9815	1
0	1972	9826	1
0	1974	9837	1
0	1976	9846	1
0	1978	9856	1
0	1980	9868	1
0	1982	9881	1
0	1984	9897	1
0	1986	9906	1
0	1988	9918	1
0	1990	9926	1
0	1992	9937	1
0	1994	9944	1
0	1996	9953	1
0	1998	9960	1
0	2000	9977	1
0	2002	9987	1
0	2004	9998	1
0	2006	10005	1
0	2008	10015	1
0	2010	10017	1
0	2012	10025	1
0	2014	10036	1
0	2016	10046	1
0	2018	10056	1
0	2020	10071	1
0	2022	10082	1
0	2024	10097	1
0	2026	10107	1
0	2028	10112	1
0	2030	10123	1
0	2032	10134	1
0	2034	10149	1
0	2036	10154	1
0	2038	10160	1
0	2040	10172	1
0	2042	10180	1
0	2044	10191	1
0	2046	10203	1
0	2048	10211	1
0	2050	10221	1
0	2052	10233	1
0	2054	10245	1
0	2056	10254	1
0	2058	10270	1
0	2060	10278	1
0	2062	10294	1
0	2064	10310	1
0	2066	10319	1
0	2068	10330	1
0	2070	10341	1
0	2072	10348	1
0	2074	10354	1
0	2076	10364	1
0	2078	10371	1
0	2080	10376	1
0	2082	10385	1
0	2084	10392	1
0	2086	10404	1
0	2088	10409	1
0	2090	10415	1
0	2092	10427	1
0	2094	10438	1
0	2096	10447	1
0	2098	10460	1
0	2100	10463	1
0	2102	10476	1
0	2104	10493	1
0	2106	10499	1
0	2108	10512	1
0	2110	10525	1
0	2112	10535	1
0	2114	10542	1
0	2116	10562	1
0	2118	10570	1
0	2120	10582	1
0	2122	10590	1
0	2124	10604	1
0	2126	10613	1
0	2128	10616	1
0	2130	10627	1
0	2132	10632	1
0	2134	10641	1
0	2136	10652	1
0	2138	10661	1
0	2140	10672	1
0	2142	10681	1
0	2144	10691	1
0	2146	10698	1
0	2148	10706	1
0	2150	10715	1
0	2152	10722	1
0	2154	10731	1
0	2156	10748	1
0	2158	10759	1
0	2160	10767	1
0	2162	10778	1
0	2164	10788	1
0	2166	10802	1
0	2168	10807	1
0	2170	10821	1
0	2172	10830	1
0	2174	10843	1
0	2176	10846	1
0	2178	10853	1
0	2180	10860	1
0	2182	10870	1
0	2184	10889	1
0	2186	10897	1
0	2188	10902	1
0	2190	10915	1
0	2192	10921	1
0	2194	10926	1
0	2196	10942	1
0	2198	10959	1
0	2200	10970	1
0	2202	10989	1
0	2204	10998	1
0	2206	11008	1
0	2208	11017	1
0	2210	11025	1
0	2212	11039	1
0	2214	11042	1
0	2216	11055	1
0	2218	11062	1
0	2220	11072	1
0	2222	11080	1
0	2224	11091	1
0	2226	11102	1
0	2228	11109	1
0	2230	11119	1
0	2232	11126	1
0	2234	11136	1
0	2236	11147	1
0	2238	11158	1
0	2240	11165	1
0	2242	11179	1
0	2244	11184	1
0	2246	11195	1
0	2248	11207	1
0	2250	11220	1
0	2252	11232	1
0	2254	11245	1
0	2256	11256	1
0	2258	11269	1
0	2260	11276	1
0	2262	11286	1
0	2264	11295	1
0	2266	11300	1
0	2268	11309	1
0	2270	11319	1
0	2272	11330	1
0	2274	11340	1
0	2276	11348	1
0	2278	11365	1
0	2280	11374	1
0	2282	11385	1
0	2284	11399	1
0	2286	11407	1
0	2288	11418	1
0	2290	11433	1
0	2292	11441	1
0	2294	11450	1
0	2296	11467	1
0	2298	11481	1
0	2300	11492	1
0	2302	11504	1
0	2304	11515	1
0	2306	11526	1
0	2308	11535	1
0	2310	11549	1
0	2312	11558	1
0	2314	11568	1
0	2316	11577	1
0	2318	11587	1
0	2320	11594	1
0	2322	11601	1
0	2324	11613	1
0	2326	11622	1
0	2328	11632	1
0	2330	11642	1
0	2332	11649	1
0	2334	11663	1
0	2336	11667	1
0	2338	11680	1
0	2340	11691	1
0	2342	11705	1
0	2344	11715	1
0	2346	11724	1
0	2348	11728	1
0	2350	11739	1
0	2352	11753	1
0	2354	11767	1
0	2356	11780	1
0	2358	11789	1
0	2360	11798	1
0	2362	11806	1
0	2364	11814	1
0	2366	11823	1
0	2368	11831	1
0	2370	11841	1
0	2372	11849	1
0	2374	11854	1
0	2376	11867	1
0	2378	11878	1
0	2380	11890	1
0	2382	11896	1
0	2384	11907	1
0	2386	11914	1
0	2388	11920	1
0	2390	11934	1
0	2392	11942	1
0	2394	11954	1
0	2396	11963	1
0	2398	11976	1
0	2400	11985	1
0	2402	11997	1
0	2404	12006	1
0	2406	12016	1
0	2408	12024	1
0	2410	12030	1
0	2412	12040	1
0	2414	12051	1
0	2416	12062	1
0	2418	12071	1
0	2420	12079	1
0	2422	12087	1
0	2424	12096	1
0	2426	12105	1
0	2428	12115	1
0	2430	12124	1
0	2432	12132	1
0	2434	12144	1
0	2436	12148	1
0	2438	12164	1
0	2440	12173	1
0	2442	12180	1
0	2444	12188	1
0	2446	12195	1
0	2448	12203	1
0	2450	12212	1
0	2452	12215	1
0	2454	12223	1
0	2456	12228	1
0	2458	12240	1
0	2460	12247	1
0	2462	12249	1
0	2464	12256	1
0	2466	12265	1
0	2468	12279	1
0	2470	12293	1
0	2472	12306	1
0	2474	12319	1
0	2476	12333	1
0	2478	12341	1
0	2480	12351	1
0	2482	12362	1
0	2484	12371	1
0	2486	12378	1
0	2488	12390	1
0	2490	12400	1
0	2492	12411	1
0	2494	12420	1
0	2496	12436	1
0	2498	12445	1
0	2500	12453	1
0	2502	12465	1
0	2504	12475	1
0	2506	12489	1
0	2508	12495	1
0	2510	12502	1
0	2512	12517	1
0	2514	12534	1
0	2516	12544	1
0	2518	12555	1
0	2520	12559	1
0	2522	12569	1
0	2524	12576	1
0	2526	12588	1
0	2528	12595	1
0	2530	12600	1
0	2532	12608	1
0	2534	12616	1
0	2536	12623	1
0	2538	12635	1
0	2540	12640	1
0	2542	12649	1
0	2544	12658	1
0	2546	12665	1
0	2548	12675	1
0	2550	12684	1
0	2552	12696	1
0	2554	12704	1
0	2556	12715	1
0	2558	12718	1
0	2560	12730	1
0	2562	12742	1
0	2564	12749	1
0	2566	12759	1
0	2568	12775	1
0	2570	12786	1
0	2572	12795	1
0	2574	12802	1
0	2576	12814	1
0	2578	12822	1
0	2580	12829	1
0	2582	12842	1
0	2584	12851	1
0	2586	12866	1
0	2588	12875	1
0	2590	12884	1
0	2592	12893	1
0	2594	12901	1
0	2596	12910	1
0	2598	12917	1
0	2600	12930	1
0	2602	12938	1
0	2604	12947	1
0	2606	12958	1
0	2608	12972	1
0	2610	12977	1
0	2612	12990	1
0	2614	13004	1
0	2616	13010	1
0	2618	13021	1
0	2620	13032	1
0	2622	13045	1
0	2624	13055	1
0	2626	13064	1
0	2628	13079	1
0	2630	13092	1
0	2632	13101	1
0	2634	13115	1
0	2636	13126	1
0	2638	13136	1
0	2640	13147	1
0	2642	13162	1
0	2644	13169	1
0	2646	13183	1
0	2648	13194	1
0	2650	13202	1
0	2652	13209	1
0	2654	13223	1
0	2656	13231	1
0	2658	13235	1
0	2660	13245	1
0	2662	13251	1
0	2664	13266	1
0	2666	13276	1
0	2668	13289	1
0	2670	13300	1
0	2672	13313	1
0	2674	13327	1
0	2676	13343	1
0	2678	13354	1
0	2680	13361	1
0	2682	13371	1
0	2684	13382	1
0	2686	13395	1
0	2688	13399	1
0	2690	13409	1
0	2692	13419	1
0	2694	13428	1
0	2696	13435	1
0	2698	13448	1
0	2700	13456	1
0	2702	13468	1
0	2704	13479	1
0	2706	13485	1
0	2708	13496	1
0	2710	13504	1
0	2712	13521	1
0	2714	13533	1
0	2716	13543	1
0	2718	13549	1
0	2720	13559	1
0	2722	13567	1
0	2724	13574	1
0	2726	13586	1
0	2728	13597	1
0	2730	13605	1
0	2732	13614	1
0	2734	13626	1
0	2736	13636	1
0	2738	13650	1
0	2740	13663	1
0	2742	13669	1
0	2744	13676	1
0	2746	13685	1
0	2748	13699	1
0	2750	13708	1
0	2752	13719	1
0	2754	13727	1
0	2756	13735	1
0	2758	13745	1
0	2760	13752	1
0	2762	13762	1
0	2764	13774	1
0	2766	13781	1
0	2768	13793	1
0	2770	13800	1
0	2772	13810	1
0	2774	13821	1
0	2776	13829	1
0	2778	13836	1
0	2780	13846	1
0	2782	13858	1
0	2784	13867	1
0	2786	13876	1
0	2788	13887	1
0	2790	13896	1
0	2792	13902	1
0	2794	13914	1
0	2796	13919	1
0	2798	13928	1
0	2800	13938	1
0	2802	13944	1
0	2804	13956	1
0	2806	13967	1
0	2808	13980	1
0	2810	13987	1
0	2812	14001	1
0	2814	14007	1
0	2816	14011	1
0	2818	14016	1
0	2820	14023	1
0	2822	14039	1
0	2824	14047	1
0	2826	14057	1
0	2828	14062	1
0	2830	14071	1
0	2832	14077	1
0	2834	14081	1
0	2836	14097	1
0	2838	14102	1
0	2840	14110	1
0	2842	14123	1
0	2844	14129	1
0	2846	14135	1
0	2848	14146	1
0	2850	14158	1
0	2852	14172	1
0	2854	14183	1
0	2856	14192	1
0	2858	14205	1
0	2860	14216	1
0	2862	14228	1
0	2864	14241	1
0	2866	14251	1
0	2868	14263	1
0	2870	14272	1
0	2872	14279	1
0	2874	14289	1
0	2876	14302	1
0	2878	14309	1
0	2880	14320	1
0	2882	14325	1
0	2884	14339	1
0	2886	14345	1
0	2888	14357	1
0	2890	14364	1
0	2892	14370	1
0	2894	14384	1
0	2896	14394	1
0	2898	14403	1
0	2900	14410	1
0	2902	14417	1
0	2904	14425	1
0	2906	14432	1
0	2908	14445	1
0	2910	14455	1
0	2912	14466	1
0	2914	14481	1
0	2916	14490	1
0	2918	14493	1
0	2920	14505	1
0	2922	14516	1
0	2924	14524	1
0	2926	14538	1
0	2928	14547	1
0	2930	14551	1
0	2932	14559	1
0	2934	14569	1
0	2936	14579	1
0	2938	14595	1
0	2940	14601	1
0	2942	14611	1
0	2944	14616	1
0	2946	14629	1
0	2948	14643	1
0	2950	14653	1
0	2952	14661	1
0	2954	14674	1
0	2956	14685	1
0	2958	14697	1
0	2960	14705	1
0	2962	14720	1
0	2964	14729	1
0	2966	14742	1
0	2968	14752	1
0	2970	14765	1
0	2972	14779	1
0	2974	14789	1
0	2976	14799	1
0	2978	14811	1
0	2980	14815	1
0	2982	14823	1
0	2984	14831	1
0	2986	14847	1
0	2988	14852	1
0	2990	14859	1
0	2992	14874	1
0	2994	14889	1
0	2996	14895	1
0	2998	14903	1
0	3000	14916	1
0	3002	14921	1
0	3004	14932	1
0	3006	14942	1
0	3008	14955	1
0	3010	14964	1
0	3012	14971	1
0	3014	14979	1
0	3016	14989	1
0	3018	15001	1
0	3020	15006	1
0	3022	15014	1
0	3024	15026	1
0	3026	15037	1
0	3028	15050	1
0	3030	15060	1
0	3032	15070	1
0	3034	15080	1
0	3036	15092	1
0	3038	15098	1
0	3040	15105	1
0	3042	15116	1
0	3044	15125	1
0	3046	15143	1
0	3048	15148	1
0	3050	15157	1
0	3052	15172	1
0	3054	15179	1
0	3056	15187	1
0	3058	15198	1
0	3060	15207	1
0	3062	15216	1
0	3064	15224	1
0	3066	15233	1
0	3068	15246	1
0	3070	15256	1
0	3072	15264	1
0	3074	15274	1
0	3076	15283	1
0	3078	15293	1
0	3080	15302	1
0	3082	15309	1
0	3084	15316	1
0	3086	15326	1
0	3088	15339	1
0	3090	15349	1
0	3092	15363	1
0	3094	15369	1
0	3096	15384	1
0	3098	15391	1
0	3100	15402	1
0	3102	15412	1
0	3104	15420	1
0	3106	15434	1
0	3108	15443	1
0	3110	15456	1
0	3112	15468	1
0	3114	15476	1
0	3116	15484	1
0	3118	15491	1
0	3120	15499	1
0	3122	15505	1
0	3124	15519	1
0	3126	15527	1
0	3128	15536	1
0	3130	15545	1
0	3132	15554	1
0	3134	15565	1
0	3136	15576	1
0	3138	15592	1
0	3140	15603	1
0	3142	15618	1
0	3144	15627	1
0	3146	15640	1
0	3148	15649	1
0	3150	15660	1
0	3152	15670	1
0	3154	15672	1
0	3156	15678	1
0	3158	15690	1
0	3160	15696	1
0	3162	15709	1
0	3164	15719	1
0	3166	15728	1
0	3168	15746	1
0	3170	15752	1
0	3172	15761	1
0	3174	15776	1
0	3176	15784	1
0	3178	15787	1
0	3180	15799	1
0	3182	15810	1
0	3184	15822	1
0	3186	15834	1
0	3188	15841	1
0	3190	15849	1
0	3192	15861	1
0	3194	15870	1
0	3196	15878	1
0	3198	15887	1
0	3200	15895	1
0	3202	15902	1
0	3204	15911	1
0	3206	15919	1
0	3208	15928	1
0	3210	15935	1
0	3212	15944	1
0	3214	15955	1
0	3216	15963	1
0	3218	15972	1
0	3220	15981	1
0	3222	15989	1
0	3224	15998	1
0	3226	16003	1
0	3228	16009	1
0	3230	16021	1
0	3232	16029	1
0	3234	16038	1
0	3236	16047	1
0	3238	16057	1
0	3240	16067	1
0	3242	16079	1
0	3244	16086	1
0	3246	16095	1
0	3248	16109	1
0	3250	16117	1
0	3252	16125	1
0	3254	16135	1
0	3256	16142	1
0	3258	16149	1
0	3260	16162	1
0	3262	16170	1
0	3264	16181	1
0	3266	16193	1
0	3268	16201	1
0	3270	16210	1
0	3272	16218	1
0	3274	16230	1
0	3276	16239	1
0	3278	16248	1
0	3280	16252	1
0	3282	16260	1
0	3284	16270	1
0	3286	16283	1
0	3288	16291	1
0	3290	16306	1
0	3292	16316	1
0	3294	16328	1
0	3296	16338	1
0	3298	16348	1
0	3300	16359	1
0	3302	16366	1
0	3304	16375	1
0	3306	16385	1
0	3308	16397	1
0	3310	16406	1
0	3312	16413	1
0	3314	16421	1
0	3316	16435	1
0	3318	16448	1
0	3320	16459	1
0	3322	16473	1
0	3324	16481	1
0	3326	16490	1
0	3328	16498	1
0	3330	16507	1
0	3332	16518	1
0	3334	16524	1
0	3336	16530	1
0	3338	16533	1
0	3340	16543	1
0	3342	16548	1
0	3344	16552	1
0	3346	16560	1
0	3348	16568	1
0	3350	16582	1
0	3352	16587	1
0	3354	16592	1
0	3356	16598	1
0	3358	16608	1
0	3360	16616	1
0	3362	16629	1
0	3364	16636	1
0	3366	16643	1
0	3368	16651	1
0	3370	16664	1
0	3372	16676	1
0	3374	16682	1
0	3376	16688	1
0	3378	16696	1
0	3380	16707	1
0	3382	16715	1
0	3384	16726	1
0	3386	16739	1
0	3388	16744	1
0	3390	16752	1
0	3392	16763	1
0	3394	16771	1
0	3396	16776	1
0	3398	16781	1
0	3400	16790	1
0	3402	16799	1
0	3404	16808	1
0	3406	16821	1
0	3408	16833	1
0	3410	16851	1
0	3412	16862	1
0	3414	16878	1
0	3416	16889	1
0	3418	16897	1
0	3420	16910	1
0	3422	16930	1
0	3424	16938	1
0	3426	16949	1
0	3428	16953	1
0	3430	16967	1
0	3432	16978	1
0	3434	16989	1
0	3436	16999	1
0	3438	17001	1
0	3440	17007	1
0	3442	17014	1
0	3444	17023	1
0	3446	17037	1
0	3448	17052	1
0	3450	17061	1
0	3452	17069	1
0	3454	17078	1
0	3456	17091	1
0	3458	17101	1
0	3460	17108	1
0	3462	17114	1
0	3464	17123	1
0	3466	17132	1
0	3468	17142	1
0	3470	17156	1
0	3472	17163	1
0	3474	17169	1
0	3476	17176	1
0	3478	17193	1
0	3480	17206	1
0	3482	17211	1
0	3484	17221	1
0	3486	17235	1
0	3488	17242	1
0	3490	17251	1
0	3492	17256	1
0	3494	17266	1
0	3496	17276	1
0	3498	17281	1
0	3500	17296	1
0	3502	17305	1
0	3504	17315	1
0	3506	17328	1
0	3508	17340	1
0	3510	17346	1
0	3512	17355	1
0	3514	17366	1
0	3516	17379	1
0	3518	17388	1
0	3520	17395	1
0	3522	17402	1
0	3524	17415	1
0	3526	17426	1
0	3528	17436	1
0	3530	17442	1
0	3532	17449	1
0	3534	17457	1
0	3536	17463	1
0	3538	17477	1
0	3540	17485	1
0	3542	17497	1
0	3544	17508	1
0	3546	17524	1
0	3548	17532	1
0	3550	17541	1
0	3552	17550	1
0	3554	17565	1
0	3556	17572	1
0	3558	17581	1
0	3560	17595	1
0	3562	17607	1
0	3564	17614	1
0	3566	17625	1
0	3568	17633	1
0	3570	17642	1
0	3572	17655	1
0	3574	17667	1
0	3576	17681	1
0	3578	17690	1
0	3580	17705	1
0	3582	17709	1
0	3584	17724	1
0	3586	17739	1
0	3588	17749	1
0	3590	17763	1
0	3592	17775	1
0	3594	17785	1
0	3596	17787	1
0	3598	17801	1
0	3600	17809	1
0	3602	17817	1
0	3604	17827	1
0	3606	17835	1
0	3608	17847	1
0	3610	17856	1
0	3612	17866	1
0	3614	17878	1
0	3616	17888	1
0	3618	17903	1
0	3620	17912	1
0	3622	17926	1
0	3624	17937	1
0	3626	17949	1
0	3628	17957	1
0	3630	17969	1
0	3632	17978	1
0	3634	17986	1
0	3636	17997	1
0	3638	18011	1
0	3640	18020	1
0	3642	18040	1
0	3644	18049	1
0	3646	18057	1
0	3648	18063	1
0	3650	18072	1
0	3652	18081	1
0	3654	18087	1
0	3656	18096	1
0	3658	18105	1
0	3660	18116	1
0	3662	18124	1
0	3664	18141	1
0	3666	18148	1
0	3668	18160	1
0	3670	18169	1
0	3672	18177	1
0	3674	18187	1
0	3676	18196	1
0	3678	18207	1
0	3680	18218	1
0	3682	18224	1
0	3684	18232	1
0	3686	18246	1
0	3688	18253	1
0	3690	18260	1
0	3692	18275	1
0	3694	18291	1
0	3696	18297	1
0	3698	18306	1
0	3700	18314	1
0	3702	18321	1
0	3704	18331	1
0	3706	18343	1
0	3708	18347	1
0	3710	18357	1
0	3712	18365	1
0	3714	18373	1
0	3716	18380	1
0	3718	18388	1
0	3720	18401	1
0	3722	18410	1
0	3724	18429	1
0	3726	18441	1
0	3728	18450	1
0	3730	18463	1
0	3732	18472	1
0	3734	18484	1
0	3736	18496	1
0	3738	18503	1
0	3740	18517	1
0	3742	18528	1
0	3744	18538	1
0	3746	18544	1
0	3748	18555	1
0	3750	18564	1
0	3752	18574	1
0	3754	18582	1
0	3756	18593	1
0	3758	18604	1
0	3760	18612	1
0	3762	18622	1
0	3764	18631	1
0	3766	18641	1
0	3768	18647	1
0	3770	18658	1
0	3772	18666	1
0	3774	18673	1
0	3776	18688	1
0	3778	18695	1
0	3780	18706	1
0	3782	18721	1
0	3784	18727	1
0	3786	18738	1
0	3788	18745	1
0	3790	18760	1
0	3792	18772	1
0	3794	18779	1
0	3796	18790	1
0	3798	18799	1
0	3800	18813	1
0	3802	18821	1
0	3804	18828	1
0	3806	18837	1
0	3808	18847	1
0	3810	18862	1
0	3812	18867	1
0	3814	18877	1
0	3816	18884	1
0	3818	18892	1
0	3820	18906	1
0	3822	18914	1
0	3824	18928	1
0	3826	18939	1
0	3828	18953	1
0	3830	18962	1
0	3832	18971	1
0	3834	18989	1
0	3836	18996	1
0	3838	19010	1
0	3840	19019	1
0	3842	19030	1
0	3844	19037	1
0	3846	19049	1
0	3848	19058	1
0	3850	19071	1
0	3852	19084	1
0	3854	19095	1
0	3856	19101	1
0	3858	19108	1
0	3860	19120	1
0	3862	19131	1
0	3864	19141	1
0	3866	19146	1
0	3868	19149	1
0	3870	19158	1
0	3872	19171	1
0	3874	19179	1
0	3876	19187	1
0	3878	19195	1
0	3880	19201	1
0	3882	19210	1
0	3884	19227	1
0	3886	19237	1
0	3888	19255	1
0	3890	19264	1
0	3892	19276	1
0	3894	19288	1
0	3896	19299	1
0	3898	19312	1
0	3900	19323	1